 108  108
1 1
     5.752917229173296     0.460505627068234    -0.859137094715467
     0.460378828855479     5.263153291523237     0.275279458087230
    -0.858988341306817     0.275305286359763     6.050579442148861
1 2
    -0.042694887576855    -0.000799806243307     0.042134355792854
     0.000338536860741    -0.000310514353076    -0.000310416708528
     0.041833871193507     0.000816348147248    -0.042008749525028
1 3
    -0.497654620724091     0.477774464082560    -0.037781083207507
     0.438039002236277    -0.439291366309367     0.004225696806200
     0.002448440707414    -0.033698393667498     0.018877266230516
1 4
    -0.030015587073112     0.029222427295441    -0.000437155966279
    -0.000923466212288     0.001449295523461    -0.002266691307900
     0.029377906655496    -0.032084194630187     0.001584369308477
1 5
     0.058783203926216    -0.001772762834138    -0.023902337093873
     0.001314726590484    -0.003686081622909     0.000378114620529
     0.025009882789924     0.000305001497292     0.028438927182547
1 6
    -0.000102634142036    -0.000007704947643    -0.000007155106924
     0.000001360230191     0.000000629485179    -0.000025424046628
    -0.000013709287576    -0.000025547719584    -0.000040636711267
1 7
    -0.000096100547028     0.000009618230153     0.000007664423577
     0.000008914890132    -0.000038405602039    -0.000025414205718
    -0.000001298841483    -0.000024536851728     0.000000394536936
1 8
    -0.001236153791543    -0.000405659903189     0.003170015871569
     0.002025860702966     0.001783348607178    -0.004793573366788
    -0.001675227619330    -0.001196798189024     0.001703000627936
1 9
    -0.000096683845332     0.000110196377821     0.000067578953956
     0.000117314119104    -0.000093713402286    -0.000069385216520
     0.000155673512960    -0.000149954924863    -0.000037903378219
1 10
    -0.000266111717200    -0.000037775716442     0.000122869269586
    -0.000038024765948     0.000002845701454     0.000064119695044
     0.000125828329118     0.000070008103779    -0.000124304794980
1 11
    -0.002805525282297     0.001404901537431    -0.000067498576210
     0.000133232734963     0.000001371263216    -0.000035766784408
     0.000078070306205     0.000047438324187     0.000152499637525
1 12
    -0.000183658140378    -0.000091469346381    -0.000005867961680
    -0.000036252284282    -0.000077382372818     0.000023545584361
     0.000052102953788     0.000078955685091     0.000000839344879
1 13
    -0.004890812085937     0.003329618294532    -0.003207976706347
     0.002047704041787     0.002046036810138     0.005214508861838
    -0.002374776640681     0.005422291046060     0.002040678737910
1 14
    -0.014837898971160     0.014143445050320     0.000055524333604
     0.014457031278094    -0.014449683474712    -0.000050617268729
    -0.000019165862188     0.000023905116649    -0.000346677570856
1 15
    -0.000000512451555    -0.000000090584730     0.000000003183697
    -0.000000443516383    -0.000000511772304    -0.000000018123455
     0.000000115337769    -0.000000008695507    -0.000000205660145
1 16
    -0.000079385619686    -0.000014458716124     0.000023958840301
    -0.000053764547255    -0.000171604511123    -0.000010793938323
     0.000061131495237     0.000029673789518     0.000000933631101
1 17
    -0.000110067882828    -0.000080774348018     0.000082052123335
    -0.000163005897378    -0.000065400816753     0.000122547984444
     0.000161867779843     0.000121010468673    -0.000064289079020
1 18
    -0.000000469534624    -0.000000286269392     0.000000116290145
    -0.000000240631225    -0.000000481367902    -0.000000036240584
    -0.000000002691176     0.000000058757909    -0.000000208959814
1 19
    -0.000092506954901    -0.000068224965369    -0.000108712908440
    -0.000148995039910    -0.000037635184840    -0.000146157479144
    -0.000105485049040    -0.000064562937094    -0.000087582769878
1 20
    -0.000021363165434     0.000003934536389    -0.000000091441918
     0.000003732334837    -0.000021435940704     0.000000194659105
    -0.000000059432134     0.000000016792497     0.000000425017871
1 21
    -0.000058135297843    -0.000034142281820     0.001553645483737
    -0.000016139677793     0.000066807147684    -0.000018622682951
    -0.001333207886435     0.000000705868873    -0.004544943263616
1 22
     0.002322629566154     0.035159070870942     0.031400622924824
     0.002335543535995     0.001677874644294     0.001052043269877
    -0.001440295738597    -0.031134727005181    -0.031138457038358
1 23
    -0.011208919069465    -0.000226065989158    -0.011838527361530
    -0.000169904315868    -0.000303468500729    -0.000183936411102
    -0.010359471792650    -0.000213996244906    -0.011450578891322
1 24
    -0.002619429047287     0.002331880990651     0.000227817650435
    -0.001070176918816     0.002342768425880     0.003119984418563
    -0.001366253789988     0.005559240540307     0.002040678241474
1 25
    -0.001593706316031    -0.002662155531064     0.002203423292098
     0.002098993088408     0.001910278700142    -0.001181968362933
    -0.002177006955216    -0.005591557151622     0.001917249401765
1 26
     0.001709654669376    -0.028940385994867     0.025082757904345
    -0.004475061440281     0.002294771896618     0.000917104693991
     0.001291581897248     0.025316624247190    -0.027135479407044
1 27
     0.000000212219109    -0.000037321434077     0.000014177229405
    -0.000022588651318    -0.000035126109932     0.000013968521406
     0.000005317954451     0.000020720312843    -0.000099755652553
1 28
    -0.000079757856186    -0.000067817257299     0.000091683193467
    -0.000024229548294     0.000001069069855     0.000002962030991
     0.000043643395905     0.000039616842310    -0.000180535193032
1 29
    -0.000070092503678    -0.000199646789510     0.000158393009622
    -0.000062806532578    -0.000074968279270     0.000092729596820
     0.000100126129541     0.000170580377077    -0.000111827548444
1 30
    -0.650125382802546    -0.674008448543069    -0.025281093812701
    -0.634234752408447    -0.628323003083198     0.003115680638096
     0.014489692519989     0.042712506483008     0.044831182916368
1 31
     0.002106681323994     0.000576186384133     0.001405840478477
    -0.001437277957112    -0.000635601012165    -0.002085975728004
     0.004840593642494     0.002679259494875     0.001882606521119
1 32
    -0.008831297882054    -0.008372797427558    -0.000090151004869
    -0.008264920491491    -0.008699031344143     0.000027599093529
     0.000025924268395     0.000142955471002    -0.000377874387447
1 33
     0.001923092891523    -0.001277972422428    -0.001858102301405
     0.000799784049329     0.001086936931841     0.000126594275574
    -0.002594880232574    -0.000444960572431     0.001842338717007
1 34
    -0.000103975905282     0.000018530059404     0.000005173047346
     0.000011413336677    -0.000036415402799    -0.000021460183998
     0.000010726855815    -0.000038807836690     0.000000469085721
1 35
    -0.000072803364507    -0.000040630847287    -0.000021230855792
    -0.000081660821231    -0.000162736959205     0.000000949444231
    -0.000061765302746    -0.000041339655787    -0.000000602521662
1 36
     0.000000027963561     0.000032949393049     0.000013772803205
     0.000020940198601    -0.000032008320689    -0.000006022019457
     0.000000962279948    -0.000014533137863    -0.000090239121620
1 37
    -0.000000132085261    -0.000000065062518    -0.000000020710879
    -0.000000071005616    -0.000000323135533    -0.000000160551420
    -0.000000004156468    -0.000000015176393    -0.000000317961811
1 38
    -0.000087789755506     0.000156653304841     0.000111148960173
     0.000064247964093    -0.000041704177992    -0.000066758926761
     0.000105422088820    -0.000152639505361    -0.000088419672084
1 39
    -0.000042794149080     0.000033033147240     0.000052563148145
     0.001355249484166    -0.002516328330208     0.000076577049605
    -0.000010842889597    -0.000033390062626     0.000115641072496
1 40
     0.002060205640527    -0.000283504444062     0.001527689633272
    -0.000813938029905     0.002783066947443     0.000502329329275
     0.001328623692678     0.000367427796235     0.001971401143019
1 41
    -0.000033045139105     0.000000236442201     0.000020603743907
     0.000004685535282    -0.000085960206156    -0.000003156365574
     0.000024340155024     0.000001978788252     0.000000267135399
1 42
    -0.011648580075824     0.011707865630336     0.000163701147171
     0.010988515100165    -0.011644657800144    -0.000201458581316
     0.000067609534515    -0.000112793035614    -0.000298081128713
1 43
     0.001928635250733     0.003124320787817     0.000187931398950
     0.003063346353353     0.002017839241208    -0.000316248016515
    -0.001221725050060     0.001197765218075    -0.000352408935304
1 44
    -0.647272121788955    -0.010407688489601    -0.577487576495644
    -0.010867344371692    -0.004042785729822    -0.009394019411209
    -0.577085163881158    -0.008961465840889    -0.535680168236796
1 45
     0.000000176745017     0.000001368153376     0.000021781477744
    -0.000003024073436    -0.000081780637452    -0.000000452798332
     0.000022394232470     0.000007484252025    -0.000033806516753
1 46
    -0.011043232130969    -0.010258032348613    -0.000135852905088
    -0.010468951633502    -0.010254793465175    -0.000125509995389
    -0.000048752785838    -0.000039465575783    -0.000267035088930
1 47
     0.001908988455658    -0.003393592888531    -0.000510548843500
    -0.001621759043844     0.001744359405531     0.001163078545878
     0.000005943026353    -0.001803867863570     0.000182387798618
1 48
    -0.000186195555611    -0.000028058642920    -0.000124565307844
    -0.000038500776434    -0.008182672344030    -0.008133553732596
    -0.000131438179851    -0.007709273517609    -0.008122673243040
1 49
     0.000004686538169    -0.000033134960950     0.000065309978198
     0.000004274038377    -0.000169493551623     0.000069954487342
     0.000016710379848     0.000029613495556    -0.000073350510726
1 50
    -0.002293489297896     0.003997906093537    -0.000062534410328
    -0.005599110064728     0.100575147596587    -0.003174128956427
    -0.000037340326031     0.001973436069092     0.001693336918359
1 51
    -0.002993560868751     0.000015195162346     0.001371951640987
     0.000009729374384     0.000074695666495    -0.000006606700687
    -0.000265972096628     0.000000139485726     0.000032447200276
1 52
     0.033039749071943    -0.036098357390050     0.007270446443995
    -0.004156779838538    -0.640706369723681     0.610346498607407
    -0.023519802411104     0.651878324425710    -0.610402043095776
1 53
     0.002536810070003     0.002581372549979    -0.006622057777986
     0.001609169751800    -0.005459696906370     0.002550195329050
    -0.005655880570881     0.001568422722004     0.002313285203914
1 54
     0.019921051950481     0.041524638232432    -0.039125817930152
     0.037490104666236    -0.766744250567274     0.781194563224807
    -0.034966932493950     0.778688444132563    -0.768229648641419
1 55
    -0.564595026469907     0.569653257234474     0.002411357992567
     0.564583092493861    -0.591200030542175    -0.000162039452629
    -0.007784345648532     0.010121565202513     0.002470027262122
1 56
    -0.000246467987713    -0.000217651685082     0.000172272666951
    -0.000439661465991    -0.012086867575511     0.012041742543928
     0.000384968968323     0.011633843635976    -0.012188794397699
1 57
     0.000139963362069    -0.000109101340229     0.000053237818035
    -0.000040267258265    -0.000002657101798     0.000165253761638
    -0.000054660522129    -0.001070668670226    -0.002666407170112
1 58
    -0.000267556847933     0.000250230261587    -0.000263440762518
    -0.000009278345749    -0.010601929999057     0.010398541381656
    -0.000001808733689     0.010405434154324    -0.010740462830223
1 59
     0.002840303743541     0.008239659928744    -0.003254713703812
     0.006595473416430     0.002851409055622     0.001968691953349
    -0.001832433535701     0.003813674985663    -0.006985426951202
1 60
     0.052388001441241    -0.020626421817566    -0.013546159972953
    -0.015539006393638    -0.998296939683629    -0.987220451636461
    -0.008643894013796    -0.984296687601214    -0.896428199297853
1 61
     0.000003104774181    -0.000066397956995     0.000040122431734
    -0.000018472214577    -0.000075494505676     0.000041424529366
    -0.000001416471457     0.000082697394086    -0.000176499995603
1 62
     0.000000423684795     0.000000003177984    -0.000000012525229
     0.000000218631694    -0.000020241294031     0.000004532992013
    -0.000000199036597     0.000004610967512    -0.000020149462063
1 63
    -0.896438542332443    -0.003528689656127     0.899612932325905
     0.001764886260181     0.041801830106590    -0.002540200246824
     0.897331440963942     0.002596393042091    -0.839897324934867
1 64
     0.002413900144281    -0.007015805553734    -0.003001624592704
    -0.001974430173315     0.002351752921479     0.002065403309328
     0.001858611683457    -0.003314182183667    -0.002759845145706
1 65
    -0.000225598911184     0.000256770312237     0.000174913516408
     0.000289349122323    -0.009236497167051    -0.009048640784668
     0.000209774539732    -0.009153092282334    -0.009517760299743
1 66
     0.001460211665741    -0.000030323743585     0.000412976922063
     0.001150385993536     0.001942353884546     0.002203014072003
    -0.001508582918038     0.001834007770148     0.001891880306203
1 67
     0.048311588882093     0.048392955662235     0.016187155129055
     0.010147319851176    -0.662657907465973    -0.677294594226282
    -0.022079889040221    -0.721948764869233    -0.701567955195426
1 68
    -0.007776583564366     0.000103720016059     0.007159689770163
     0.000040822789563    -0.000201271153982    -0.000027925739421
     0.007338567219955    -0.000090399520276    -0.007166217351120
1 69
    -0.000214214007173     0.000046399329423     0.000049770351089
     0.000003240833314     0.000000145294142    -0.000028307229668
     0.000100993962126    -0.000077553186204    -0.000096017363338
1 70
    -0.000031195367482    -0.000000061696296     0.000004655395972
     0.000000024944558     0.000000319601908    -0.000000121578077
     0.000004521786693     0.000000261901619    -0.000031312502413
1 71
     0.000037381740077     0.000248632126828    -0.000008971605044
    -0.000693862653342    -0.002321412390049    -0.000022867801978
     0.000000982982121     0.000013498392004     0.000149042014626
1 72
    -0.650857134176415    -0.001303613366304    -0.680600901751436
     0.004815061012838     0.010436101606868     0.004171412837428
    -0.679431987078293    -0.002087413941378    -0.709402819004915
1 73
    -0.848846450865268    -0.852250643598063     0.009396401930560
    -0.853255663910827    -0.808332840574046     0.005180350136062
    -0.001619628985157    -0.005566699370537     0.035462302911561
1 74
    -0.013327528834987     0.000214726486120    -0.012017721107412
     0.000052768013038    -0.000287241085661     0.000048615336827
    -0.013222751984551     0.000216732280642    -0.012431201807554
1 75
    -0.002772055003747    -0.001219621203570    -0.000043553229587
     0.000141858013392     0.000012462299051    -0.000003177199416
     0.000071681433731    -0.000061513650379     0.000130089671722
1 76
     0.036405730343112    -0.000886618712716     0.031179500075779
    -0.000556347310535    -0.002119279600031     0.001685022015944
    -0.033410805529790    -0.002417930529395     0.066393150891462
1 77
    -0.004378014867242     0.000040927948599    -0.001448949416050
     0.000000808646305     0.000106714806930     0.000005834506137
     0.001359136425583    -0.000025711820410    -0.000007895084216
1 78
    -0.001756163786912    -0.003599844389498     0.000223347485895
     0.001688895162253     0.001694949914481    -0.001247962372856
    -0.002590684433341    -0.005243934894516     0.001730343568551
1 79
     0.000147828500696     0.000103735671542     0.000056628209692
     0.000033857383750     0.000014776674203    -0.000024907428875
    -0.000052607903883     0.000995752013903    -0.002469865292376
1 80
     0.002015616888495     0.002171885308973     0.005319906983027
    -0.001342346217828    -0.002162889043185    -0.002147563413885
     0.001973350541573     0.001235587297828     0.001791011759425
1 81
     0.000158000653972    -0.000009935731364    -0.000040280928487
     0.000047391416698    -0.002900299781553     0.001254485979720
     0.000014194375565    -0.000082297780925    -0.000000887565577
1 82
    -0.000075159913023     0.000116861164496    -0.000111419421996
     0.000112194177941    -0.000076818281308     0.000109564640157
    -0.000115876170226     0.000118809997300    -0.000076944375051
1 83
    -0.000189943079224     0.000009158604590    -0.000019845807238
     0.000003201971605     0.000002715898488     0.000041750276869
    -0.000024344419719     0.000048416545284    -0.000076172598129
1 84
     0.002891877869441    -0.006970705844089     0.003323096981922
    -0.007236178727077     0.002329949981235     0.003213259688684
     0.005798011034025     0.005155191198669    -0.007540443260780
1 85
     0.009838193194319    -0.000265342840449    -0.006421078064126
    -0.000124667739817     0.009586649211576     0.000492754010247
     0.011684622169450    -0.000453087210379     0.084769066813478
1 86
    -0.059888062373448    -0.056207743697611     0.003136562186122
    -0.002997177227025     0.002413976977483     0.006242195654331
     0.055279313597722     0.058464276580602     0.001927927118608
1 87
     0.000187246690386     0.000009889896546    -0.000895170467485
     0.000028903710240     0.000278517328469     0.000010260803570
     0.001501597637998    -0.000025181195551    -0.005539986904550
1 88
    -0.000156988407901    -0.000122876171590    -0.000194866517335
    -0.000265556610381    -0.000068331116868    -0.000266474458255
    -0.000187396381082    -0.000118806365135    -0.000156358773671
1 89
     0.000004054521829    -0.000068670786376    -0.000112861162971
     0.000011380128810    -0.000294185144304    -0.000138623954373
    -0.000037923820484    -0.000061336274489    -0.000131969623870
1 90
     0.004808932346275     0.000256273671390     0.000368747492865
    -0.005136669374617     0.091660326464027    -0.004123644470115
     0.000194029386402     0.002719102207967     0.008424404895051
1 91
    -0.000184830688810     0.000154669586431     0.000232424065886
     0.000048803556970     0.000001073032111    -0.000007091533053
     0.000109647574553    -0.000103199179709    -0.000411726859662
1 92
     0.003025267818224    -0.005231462360304    -0.009354924458579
    -0.005406035702458    -0.008402318732004    -0.006671338265065
    -0.007688347993477    -0.003275783468607     0.003058022444215
1 93
    -0.000140047782737    -0.000056381639513    -0.000040898334019
    -0.000134463827273    -0.000302544613623     0.000013476972471
    -0.000112879393662    -0.000069987715213     0.000004011279394
1 94
     0.002683272220936    -0.004004068671544    -0.007519165935958
    -0.007035612868818    -0.011740567451426    -0.003308128530183
    -0.010830241653285    -0.007040020126871     0.002476680927159
1 95
    -0.000000589420575    -0.000000026711205     0.000000040621728
    -0.000000237908300    -0.000000247968427    -0.000000039539808
     0.000000257501922     0.000000089042377    -0.000000595039951
1 96
    -0.000138993148710    -0.000048005986318     0.000006210966234
    -0.000100594571580     0.000002743398840     0.000053146096294
     0.000076411439297    -0.000028362814734    -0.000301098422658
1 97
    -0.000162700488178     0.000005985168564     0.000000163979678
     0.000001882229401    -0.000063335755496     0.000041005159982
    -0.000002684411622     0.000042146257562     0.000001210193819
1 98
     0.065639275068325    -0.004673052019815     0.007239889474664
     0.004071374454630     0.013414332286104    -0.000088136873507
    -0.007193626728038    -0.000106698107928     0.015951107184491
1 99
     0.000189289132687     0.000050718303490     0.000075325349888
     0.000028868941693    -0.005393631651196    -0.002062776072865
     0.000077045165869     0.000533526477930     0.000035290230639
1 100
     0.003228617413710     0.009052006509190     0.004367951779990
     0.010441551145290     0.002854871222805    -0.005855180317231
     0.007563158409129    -0.006410525418242    -0.010213841775264
1 101
    -0.000137450625607     0.000038232242283     0.000053956038674
     0.000110159668439     0.000004858849179    -0.000073194557082
     0.000129562622764     0.000015252349124    -0.000293509049761
1 102
    -0.000000803179301    -0.000000176501317     0.000000467026975
    -0.000000060869680    -0.000000364351734     0.000000047248222
     0.000000399566632    -0.000000034556225    -0.000000820298281
1 103
     0.000009046229869     0.000141661043177     0.000097173193048
     0.000039670244156    -0.000170948250799    -0.000085875168265
    -0.000015525480368    -0.000169085949331    -0.000389863875538
1 104
    -1.123682934054224     0.024755921245056     1.210498586872041
     0.006304686715531     0.113580515347204    -0.011516349306389
     1.204514748011593    -0.029687418650876    -1.109471257029922
1 105
     0.002159141064877    -0.003999620925238     0.006529450490872
    -0.004342364208123    -0.006423394181208     0.005495074571994
     0.004834297065489     0.001811178168520     0.001932301193715
1 106
     0.000005758833151    -0.000084283671274    -0.000128435587935
     0.000009024407462    -0.000334244733045    -0.000159919833587
    -0.000040057826293    -0.000074166982933    -0.000149771981474
1 107
    -0.000113950744011     0.000166492308592    -0.000161838608707
     0.000153174900941    -0.000102259617130     0.000151879332577
    -0.000157006830618     0.000160038388467    -0.000100346214715
1 108
    -0.000000656357872    -0.000000231985438     0.000000398165708
    -0.000000425515238    -0.000001397619827     0.000000127436402
     0.000000581035294     0.000000047750085    -0.000001386185478
2 1
    -0.042694909013970     0.000339046566527     0.041833731525553
    -0.000799501693397    -0.000310505018941     0.000816013351053
     0.042134803611497    -0.000310913916603    -0.042009099602650
2 2
     5.487403256722074     0.109577532906751    -0.541278064266074
     0.109566738407922     6.102159418760836     1.280370909417249
    -0.541357690739917     1.280385082336002     6.777804555345256
2 3
     0.003636127953642    -0.035855547163848     0.032754508485742
    -0.004329565155244     0.001587457692130     0.001453695943195
    -0.001110427074996     0.031544043788483    -0.034283343636763
2 4
     0.029500333442959    -0.026164755384741    -0.006351961623410
     0.006567775889649    -0.606811291358456     0.575813643000986
    -0.038494109621999     0.609390842489193    -0.570652022731190
2 5
     0.024794908440532     0.000862429972396     0.026341948262646
     0.000586278288824     0.024797552570146    -0.024982661582895
    -0.024784421275018     0.024563089637207     0.051664843624044
2 6
     0.001607558483778    -0.002454815514278    -0.000014383342641
    -0.003380963567579     0.001551999509160     0.000941244967413
     0.000873760142592    -0.000132015044381    -0.001823759675685
2 7
    -0.000001346855551    -0.000025347321168    -0.000003988625963
    -0.000090478283216    -0.000088925291027    -0.000094971311593
    -0.000039451173633    -0.000057663069623    -0.000205452133402
2 8
    -0.000035859856851    -0.000034844000687    -0.000022069471526
    -0.000036037013096    -0.000000042503255    -0.000009203094686
    -0.000016170469295    -0.000018025971582    -0.000109673077927
2 9
    -0.000050232388856    -0.000098567840980     0.000122907825198
    -0.000093269664144    -0.000055910863358     0.000120762352844
     0.000073141760361     0.000076573228996    -0.000089173289345
2 10
    -0.857581766482667    -0.859485656015076    -0.002548271878819
    -0.901147049235071    -0.821053742921011     0.028708592856791
    -0.036126845987108    -0.004115062621627     0.071930743273230
2 11
     0.001294310348444    -0.002345859861434     0.000460102502325
    -0.033453809413753     0.002212672911106    -0.030010235802241
    -0.029766351450439     0.001140375317697    -0.029960085175793
2 12
     0.001083420495973     0.000841808767565    -0.001612174229760
    -0.033532480602383    -0.033879770375305     0.001557720754218
    -0.036589436526125    -0.034066720109725     0.001557927554585
2 13
     0.000799964718072     0.000302556006366     0.001303728922878
     0.000070332386982     0.001854529783702    -0.001847724595612
    -0.000734822598840    -0.002728941379809     0.001847962771336
2 14
    -0.000038912879533    -0.000059918302925    -0.000056397625355
    -0.000146136952123    -0.000081912013148    -0.000097901492879
    -0.000148426147554    -0.000102821899139    -0.000082362777820
2 15
    -0.000001116933817    -0.000013866770309     0.000070402180512
     0.000015439222500    -0.000241045477911     0.000002715816966
     0.000071957253025    -0.000025903217474    -0.000113344361241
2 16
    -0.000000184994412    -0.000000018224799     0.000000158840866
    -0.000000030040385    -0.000000448443105     0.000000098247721
     0.000000144592819    -0.000000040456542    -0.000000457419036
2 17
    -0.000064432082339     0.000116141880254     0.000117629147537
     0.000157228969797    -0.000103115678129    -0.000141252338243
     0.000161469338827    -0.000143273744740    -0.000104556373332
2 18
     0.000031739203651     0.000047806908060    -0.000066141721795
    -0.000043747330472    -0.001719368642153     0.000060018281175
    -0.000020107576738    -0.000145920701252     0.000237556507835
2 19
    -0.012922037127136     0.012613526526232    -0.000073269871868
     0.012720905437650    -0.013064517396432     0.000094796696621
    -0.000156785009972     0.000177992040911    -0.000239089274983
2 20
    -0.000001019156633     0.000001641126864    -0.000027543087899
    -0.000049313550430    -0.000203575709090    -0.000044180367853
    -0.000074973083995    -0.000098603104526    -0.000092796796706
2 21
    -0.652133736724451     0.012505432621018    -0.631237943500372
    -0.029953011071785     0.054488922164418     0.011185578399734
    -0.678877513173154     0.053828181553332    -0.621864440907150
2 22
    -0.496080592117426    -0.505218401607562    -0.027548239540758
    -0.514665222393479    -0.501308482169956     0.043839728829293
    -0.036278080411813     0.034986139399368     0.063386315969243
2 23
    -0.001755460853222     0.001093761846793    -0.000674501540961
     0.000294188364639     0.027432687674063    -0.024676656707334
     0.002208884181128     0.021617563641570     0.052031065612660
2 24
     0.000161056244778    -0.000050349934044     0.000071788418673
    -0.000010354635453     0.000029661739200    -0.000828104576335
    -0.000073945126389     0.000175009284300    -0.002683205122137
2 25
     0.000121807688267     0.000049174798929     0.000034374295721
     0.000008098498557     0.000080024815448    -0.001859254686061
    -0.000019602576175    -0.000079228505031    -0.003419058053418
2 26
    -0.617477227510336     0.641931388213146    -0.036487532352965
     0.640425521804868    -0.627047260004082     0.034045432880518
     0.017387392072142    -0.020419701739307     0.056509145965900
2 27
     0.001825299729089     0.000387469628264    -0.003755767034930
     0.001948536945116    -0.003720304154712     0.000290211169274
    -0.005635504825598     0.002463462407191     0.002170294381025
2 28
     0.012948497366853     0.018451869010024    -0.020669903665690
     0.016115952679829    -0.652065372033136     0.679775785078006
    -0.018161188700379     0.675112581571654    -0.696621955206976
2 29
    -0.002399178529125     0.000735347631329     0.000930895619370
    -0.002616487486913     0.067571206833703     0.026974765101952
     0.001577020127524    -0.026476987071274     0.027262539926567
2 30
     0.003134027874182     0.035628873926941     0.030113583458376
     0.031083712759200     0.004155283149417    -0.024816184496486
     0.026606950561107    -0.030370761640638    -0.057421810422594
2 31
     0.003000977453145    -0.000332600737860     0.003144530217314
     0.031012750254480    -0.030380295665581     0.000289122360441
     0.034371791145380    -0.030631082340803     0.002016820061455
2 32
    -0.000314815886347    -0.000781458557708    -0.000805843876546
    -0.000018396594146    -0.042602934555432    -0.041952979499834
    -0.000048269671876    -0.041902327277484    -0.041979318896142
2 33
    -0.000001548811115    -0.000034546455767     0.000008962635294
    -0.000073579963442    -0.000075554404916    -0.000078410802929
    -0.000043314264612    -0.000018755133898    -0.000189014004054
2 34
     0.001971944469255     0.001016727834080    -0.004198443498261
     0.001942150485724    -0.004122530140286     0.000665010518349
    -0.005304441726805     0.001991548712830     0.001877704742039
2 35
     0.000000303491721    -0.000000563515279    -0.000000442215183
     0.000000583010973    -0.000058039953584    -0.000008369114868
     0.000000355468832    -0.000007731881246    -0.000058570726935
2 36
     0.000226897273851    -0.000346092146720    -0.001867326187120
    -0.031670861655790    -0.034142571921299     0.001086690778116
    -0.035340463687935    -0.034866822091306     0.001645521363737
2 37
     0.000147986912117    -0.000048281396037    -0.000011348112015
     0.000008347010586    -0.002826134183224     0.000077894734111
    -0.000071912124877    -0.001079475859367     0.000047794698625
2 38
    -0.002416033167142     0.000790666323521     0.001540168164545