32   
2    

1    
  0.0070710678118655   0.0070710678118655   0.0000000000000000
  -0.0267240600   -0.0512541500    0.0000000000
   0.0002421300   -0.0002515700    0.0000000000
  -0.0004353200    0.0016685700    0.0000000000
  -0.0001026500    0.0000775800    0.0000000000
  -0.0004365700   -0.0005195200    0.0000000000
  -0.0001036100   -0.0000231700    0.0000000000
  -0.0000846500    0.0002888100    0.0000000000
  -0.0002957800    0.0001227100    0.0000000000
  -0.0010516600   -0.0001623200    0.0000000000
   0.0081427000    0.0072795600    0.0000000000
   0.0085932100    0.0077277700    0.0000000000
  -0.0010269800   -0.0001879900    0.0000000000
   0.0002525100    0.0001376600    0.0000000000
   0.0002303900    0.0003450000    0.0000000000
   0.0002307500    0.0003425400    0.0000000000
   0.0002529900    0.0001408200    0.0000000000
   0.0037012900   -0.0007809600   -0.0038945000
   0.0036239500   -0.0007511000    0.0037823900
   0.0002429800    0.0003315800   -0.0001034800
   0.0002403600    0.0003288400    0.0001020100
   0.0037012900   -0.0007809600    0.0038945000
   0.0036239500   -0.0007511000   -0.0037823900
   0.0002429800    0.0003315800    0.0001034800
   0.0002403600    0.0003288400   -0.0001020100
  -0.0015222700    0.0087584800    0.0100838300
   0.0007318700    0.0001644400    0.0001589700
  -0.0015954700    0.0089159600   -0.0103267500
   0.0007356000    0.0001666200   -0.0001632100
  -0.0015222700    0.0087584800   -0.0100838300
   0.0007318700    0.0001644400   -0.0001589700
  -0.0015954700    0.0089159600    0.0103267500
   0.0007356000    0.0001666200    0.0001632100

25   
  0.0100000000000000   0.0000000000000000   0.0000000000000000
  -0.0022076900   -0.0000246700   -0.0000246700
   0.0010385800    0.0000007500    0.0000007500
  -0.0022076900    0.0000246700   -0.0000246700
   0.0010385800   -0.0000007500    0.0000007500
  -0.0022076900   -0.0000246700    0.0000246700
   0.0010385800    0.0000007500   -0.0000007500
  -0.0022076900    0.0000246700    0.0000246700
   0.0010385800   -0.0000007500   -0.0000007500
   0.0126812300   -0.0000000000    0.0147001100
   0.0123153600   -0.0000000000   -0.0141685900
   0.0002264400    0.0000000000    0.0002287600
   0.0002333700    0.0000000000   -0.0002292800
   0.0126812300   -0.0000000000   -0.0147001100
   0.0123153600    0.0000000000    0.0141685900
   0.0002264400    0.0000000000   -0.0002287600
   0.0002333700    0.0000000000    0.0002292800
   0.0126812300    0.0147001100   -0.0000000000
   0.0123153600   -0.0141685900   -0.0000000000
   0.0126812300   -0.0147001100   -0.0000000000
   0.0123153600    0.0141685900   -0.0000000000
   0.0002264400    0.0002287600   -0.0000000000
   0.0002333700   -0.0002292800   -0.0000000000
   0.0002264400   -0.0002287600   -0.0000000000
   0.0002333700    0.0002292800   -0.0000000000
  -0.0983508500    0.0000000000   -0.0000000000
   0.0072327100   -0.0000000000    0.0000000000
  -0.0015024300    0.0000000000   -0.0000000000
  -0.0015556900    0.0000000000   -0.0000000000
  -0.0015024300    0.0000000000   -0.0000000000
  -0.0015556900    0.0000000000   -0.0000000000
   0.0001331600    0.0000000000   -0.0000000000
  -0.0000479400    0.0000000000   -0.0000000000
